<?xml version="1.0" encoding="UTF-8"?>
<results title="frequencies">
 <result title="frequency" word="perovskite" count="104"/>
 <result title="frequency" word="perovskites" count="95"/>
 <result title="frequency" word="Zhang" count="79"/>
 <result title="frequency" word="Chem." count="72"/>
 <result title="frequency" word="PbI" count="64"/>
 <result title="frequency" word="Wang" count="61"/>
 <result title="frequency" word="Mater." count="56"/>
 <result title="frequency" word="(BA)" count="54"/>
 <result title="frequency" word="(PEA)" count="43"/>
 <result title="frequency" word="emission" count="42"/>
 <result title="frequency" word="−Pb" count="40"/>
 <result title="frequency" word="Copyright" count="39"/>
 <result title="frequency" word="LEDs" count="39"/>
 <result title="frequency" word="Figure" count="38"/>
 <result title="frequency" word="Liu" count="37"/>
 <result title="frequency" word="Reproduced" count="37"/>
 <result title="frequency" word="halide" count="37"/>
 <result title="frequency" word="Chen" count="36"/>
 <result title="frequency" word="Lett." count="36"/>
 <result title="frequency" word="structure" count="36"/>
 <result title="frequency" word="organic" count="35"/>
 <result title="frequency" word="reported" count="35"/>
 <result title="frequency" word="inorganic" count="34"/>
 <result title="frequency" word="different" count="33"/>
 <result title="frequency" word="charge" count="32"/>
 <result title="frequency" word="energy" count="31"/>
 <result title="frequency" word="Adv." count="30"/>
 <result title="frequency" word="Yang" count="30"/>
 <result title="frequency" word="bandgap" count="29"/>
 <result title="frequency" word="(MA)" count="28"/>
 <result title="frequency" word="Phys." count="28"/>
 <result title="frequency" word="light" count="27"/>
 <result title="frequency" word="solar" count="27"/>
 <result title="frequency" word="exciton" count="26"/>
 <result title="frequency" word="layers" count="26"/>
 <result title="frequency" word="permission." count="26"/>
 <result title="frequency" word="solution" count="26"/>
 <result title="frequency" word="ACS" count="25"/>
 <result title="frequency" word="binding" count="25"/>
 <result title="frequency" word="film" count="25"/>
 <result title="frequency" word="(CH" count="23"/>
 <result title="frequency" word="EQE" count="23"/>
 <result title="frequency" word="high" count="23"/>
 <result title="frequency" word="obtained" count="23"/>
 <result title="frequency" word="American" count="22"/>
 <result title="frequency" word="Energy" count="22"/>
 <result title="frequency" word="Soc." count="22"/>
 <result title="frequency" word="(Figure" count="21"/>
 <result title="frequency" word="Am." count="21"/>
 <result title="frequency" word="Chemical" count="21"/>
 <result title="frequency" word="PbBr" count="21"/>
 <result title="frequency" word="Society." count="21"/>
 <result title="frequency" word="efficiency" count="21"/>
 <result title="frequency" word="films" count="21"/>
 <result title="frequency" word="group" count="21"/>
 <result title="frequency" word="layer" count="21"/>
 <result title="frequency" word=".[qv:" count="20"/>
 <result title="frequency" word="lead" count="20"/>
 <result title="frequency" word="optoelectronic" count="20"/>
 <result title="frequency" word="quantum" count="20"/>
 <result title="frequency" word="surface" count="20"/>
 <result title="frequency" word="{border-style" count="20"/>
 <result title="frequency" word="Nano" count="19"/>
 <result title="frequency" word="cations" count="19"/>
 <result title="frequency" word="quasi‐D" count="19"/>
 <result title="frequency" word="band" count="18"/>
 <result title="frequency" word="crystal" count="18"/>
 <result title="frequency" word="number" count="18"/>
 <result title="frequency" word="perovskites," count="18"/>
 <result title="frequency" word="perovskites." count="18"/>
 <result title="frequency" word="px;}" count="18"/>
 <result title="frequency" word="single" count="18"/>
 <result title="frequency" word="#ffffff;}" count="17"/>
 <result title="frequency" word="Commun." count="17"/>
 <result title="frequency" word="recombination" count="17"/>
 <result title="frequency" word="Kim" count="16"/>
 <result title="frequency" word="PEA" count="16"/>
 <result title="frequency" word="Science" count="16"/>
 <result title="frequency" word="Stoumpos" count="16"/>
 <result title="frequency" word="absorption" count="16"/>
 <result title="frequency" word="metal" count="16"/>
 <result title="frequency" word="nonradiative" count="16"/>
 <result title="frequency" word="peak" count="16"/>
 <result title="frequency" word="spectra" count="16"/>
 <result title="frequency" word="stability" count="16"/>
 <result title="frequency" word="Kanatzidis" count="15"/>
 <result title="frequency" word="Sun" count="15"/>
 <result title="frequency" word="confinement" count="15"/>
 <result title="frequency" word="crystals" count="15"/>
 <result title="frequency" word="device" count="15"/>
 <result title="frequency" word="efficient" count="15"/>
 <result title="frequency" word="large" count="15"/>
 <result title="frequency" word="orientation" count="15"/>
 <result title="frequency" word="phase" count="15"/>
 <result title="frequency" word="used" count="15"/>
 <result title="frequency" word="Gao" count="14"/>
 <result title="frequency" word="Huang" count="14"/>
 <result title="frequency" word="Yan" count="14"/>
 <result title="frequency" word="Zhao" count="14"/>
 <result title="frequency" word="form" count="14"/>
 <result title="frequency" word="hybrid" count="14"/>
 <result title="frequency" word="Nat." count="13"/>
 <result title="frequency" word="PCE" count="13"/>
 <result title="frequency" word="Wei" count="13"/>
 <result title="frequency" word="achieved" count="13"/>
 <result title="frequency" word="cation" count="13"/>
 <result title="frequency" word="good" count="13"/>
 <result title="frequency" word="highest" count="13"/>
 <result title="frequency" word="layered" count="13"/>
 <result title="frequency" word="permission.[qv:" count="13"/>
 <result title="frequency" word="properties" count="13"/>
 <result title="frequency" word="shown" count="13"/>
 <result title="frequency" word="shows" count="13"/>
 <result title="frequency" word="transfer" count="13"/>
 <result title="frequency" word="Cao" count="12"/>
 <result title="frequency" word="However," count="12"/>
 <result title="frequency" word="Sci." count="12"/>
 <result title="frequency" word="based" count="12"/>
 <result title="frequency" word="broad" count="12"/>
 <result title="frequency" word="increase" count="12"/>
 <result title="frequency" word="introduction" count="12"/>
 <result title="frequency" word="white" count="12"/>
 <result title="frequency" word="LEDs." count="11"/>
 <result title="frequency" word="Lee" count="11"/>
 <result title="frequency" word="PLQY" count="11"/>
 <result title="frequency" word="Shi" count="11"/>
 <result title="frequency" word="achieve" count="11"/>
 <result title="frequency" word="blue" count="11"/>
 <result title="frequency" word="cells" count="11"/>
 <result title="frequency" word="current" count="11"/>
 <result title="frequency" word="defects" count="11"/>
 <result title="frequency" word="electrons" count="11"/>
 <result title="frequency" word="holes" count="11"/>
 <result title="frequency" word="improved" count="11"/>
 <result title="frequency" word="larger" count="11"/>
 <result title="frequency" word="materials" count="11"/>
 <result title="frequency" word="method" count="11"/>
 <result title="frequency" word="mixed" count="11"/>
 <result title="frequency" word="organic–inorganic" count="11"/>
 <result title="frequency" word="precursor" count="11"/>
 <result title="frequency" word="radiative" count="11"/>
 <result title="frequency" word="solvent" count="11"/>
 <result title="frequency" word="temperature" count="11"/>
 <result title="frequency" word="Recently," count="10"/>
 <result title="frequency" word="State" count="10"/>
 <result title="frequency" word="Tsai" count="10"/>
 <result title="frequency" word="Zhu" count="10"/>
 <result title="frequency" word="carrier" count="10"/>
 <result title="frequency" word="devices" count="10"/>
 <result title="frequency" word="growth" count="10"/>
 <result title="frequency" word="important" count="10"/>
 <result title="frequency" word="lattice" count="10"/>
 <result title="frequency" word="low" count="10"/>
 <result title="frequency" word="lower" count="10"/>
 <result title="frequency" word="material" count="10"/>
 <result title="frequency" word="mobility" count="10"/>
 <result title="frequency" word="optical" count="10"/>
 <result title="frequency" word="order" count="10"/>
 <result title="frequency" word="spin" count="10"/>
 <result title="frequency" word="synthesized" count="10"/>
 <result title="frequency" word="thickness" count="10"/>
 <result title="frequency" word="(FA)" count="9"/>
 <result title="frequency" word="Appl." count="9"/>
 <result title="frequency" word="Mitzi" count="9"/>
 <result title="frequency" word="[qv:" count="9"/>
 <result title="frequency" word="cations," count="9"/>
 <result title="frequency" word="compared" count="9"/>
 <result title="frequency" word="crystallization" count="9"/>
 <result title="frequency" word="process" count="9"/>
 <result title="frequency" word="range" count="9"/>
 <result title="frequency" word="ratio" count="9"/>
 <result title="frequency" word="results" count="9"/>
 <result title="frequency" word="series" count="9"/>
 <result title="frequency" word="(NMA)" count="8"/>
 <result title="frequency" word="/Au" count="8"/>
 <result title="frequency" word="Fang" count="8"/>
 <result title="frequency" word="Guo" count="8"/>
 <result title="frequency" word="Jilin" count="8"/>
 <result title="frequency" word="Mao" count="8"/>
 <result title="frequency" word="Mathews" count="8"/>
 <result title="frequency" word="Nie" count="8"/>
 <result title="frequency" word="Peng" count="8"/>
 <result title="frequency" word="RPP" count="8"/>
 <result title="frequency" word="Rev." count="8"/>
 <result title="frequency" word="Shen" count="8"/>
 <result title="frequency" word="SnI" count="8"/>
 <result title="frequency" word="Sum" count="8"/>
 <result title="frequency" word="TPC" count="8"/>
 <result title="frequency" word="Table" count="8"/>
 <result title="frequency" word="Yin" count="8"/>
 <result title="frequency" word="Zou" count="8"/>
 <result title="frequency" word="caused" count="8"/>
 <result title="frequency" word="change" count="8"/>
 <result title="frequency" word="defect" count="8"/>
 <result title="frequency" word="density" count="8"/>
 <result title="frequency" word="devices." count="8"/>
 <result title="frequency" word="dielectric" count="8"/>
 <result title="frequency" word="effect" count="8"/>
 <result title="frequency" word="electron" count="8"/>
 <result title="frequency" word="excellent" count="8"/>
 <result title="frequency" word="excitons" count="8"/>
 <result title="frequency" word="fluorescence" count="8"/>
 <result title="frequency" word="higher" count="8"/>
 <result title="frequency" word="layers." count="8"/>
 <result title="frequency" word="methods" count="8"/>
 <result title="frequency" word="px;" count="8"/>
 <result title="frequency" word="smaller" count="8"/>
 <result title="frequency" word="state" count="8"/>
 <result title="frequency" word="synthesis" count="8"/>
 <result title="frequency" word="uniform" count="8"/>
 <result title="frequency" word="value" count="8"/>
 <result title="frequency" word="visible" count="8"/>
 <result title="frequency" word="{font-family" count="8"/>
 <result title="frequency" word="(EDBE)PbBr" count="7"/>
 <result title="frequency" word=")Pb" count="7"/>
 <result title="frequency" word="Compared" count="7"/>
 <result title="frequency" word="Development" count="7"/>
 <result title="frequency" word="Ishihara" count="7"/>
 <result title="frequency" word="MAPbI" count="7"/>
 <result title="frequency" word="MSE" count="7"/>
 <result title="frequency" word="Mhaisalkar" count="7"/>
 <result title="frequency" word="Nanoscale" count="7"/>
 <result title="frequency" word="Nature" count="7"/>
 <result title="frequency" word="Nature." count="7"/>
 <result title="frequency" word="N‐MEDA)[PbBr" count="7"/>
 <result title="frequency" word="PbCl" count="7"/>
 <result title="frequency" word="PbX" count="7"/>
 <result title="frequency" word="Ruddlesden–Popper" count="7"/>
 <result title="frequency" word="SnBr" count="7"/>
 <result title="frequency" word="Snaith" count="7"/>
 <result title="frequency" word="Springer" count="7"/>
 <result title="frequency" word="University" count="7"/>
 <result title="frequency" word="Zhou" count="7"/>
 <result title="frequency" word="addition" count="7"/>
 <result title="frequency" word="amine" count="7"/>
 <result title="frequency" word="cells." count="7"/>
 <result title="frequency" word="changes" count="7"/>
 <result title="frequency" word="containing" count="7"/>
 <result title="frequency" word="corresponding" count="7"/>
 <result title="frequency" word="deposition" count="7"/>
 <result title="frequency" word="diffraction" count="7"/>
 <result title="frequency" word="effective" count="7"/>
 <result title="frequency" word="film," count="7"/>
 <result title="frequency" word="font-size" count="7"/>
 <result title="frequency" word="force" count="7"/>
 <result title="frequency" word="greatly" count="7"/>
 <result title="frequency" word="iodide" count="7"/>
 <result title="frequency" word="light‐emitting" count="7"/>
 <result title="frequency" word="liquid‐phase" count="7"/>
 <result title="frequency" word="method." count="7"/>
 <result title="frequency" word="morphology" count="7"/>
 <result title="frequency" word="recombination," count="7"/>
 <result title="frequency" word="regulation" count="7"/>
 <result title="frequency" word="small" count="7"/>
 <result title="frequency" word="stability." count="7"/>
 <result title="frequency" word="strong" count="7"/>
 <result title="frequency" word="structures" count="7"/>
 <result title="frequency" word="time" count="7"/>
 <result title="frequency" word="valence" count="7"/>
 <result title="frequency" word="(C)" count="6"/>
 <result title="frequency" word="(quasi‐)" count="6"/>
 <result title="frequency" word="Angew." count="6"/>
 <result title="frequency" word="Cheng" count="6"/>
 <result title="frequency" word="China" count="6"/>
 <result title="frequency" word="CsPbBr" count="6"/>
 <result title="frequency" word="D/D" count="6"/>
 <result title="frequency" word="Different" count="6"/>
 <result title="frequency" word="Ding" count="6"/>
 <result title="frequency" word="Han" count="6"/>
 <result title="frequency" word="ITO/PEIE–ZnO/EM/TFB/MoO" count="6"/>
 <result title="frequency" word="Jin" count="6"/>
 <result title="frequency" word="Karunadasa" count="6"/>
 <result title="frequency" word="Key" count="6"/>
 <result title="frequency" word="LEDs," count="6"/>
 <result title="frequency" word="Miao" count="6"/>
 <result title="frequency" word="Mohite" count="6"/>
 <result title="frequency" word="N‐MEDA)PbBr" count="6"/>
 <result title="frequency" word="Program" count="6"/>
 <result title="frequency" word="Qiu" count="6"/>
 <result title="frequency" word="So," count="6"/>
 <result title="frequency" word="Tan" count="6"/>
 <result title="frequency" word="Therefore," count="6"/>
 <result title="frequency" word="Wiley‐VCH." count="6"/>
 <result title="frequency" word="addition," count="6"/>
 <result title="frequency" word="affected" count="6"/>
 <result title="frequency" word="b,]" count="6"/>
 <result title="frequency" word="color" count="6"/>
 <result title="frequency" word="conduction" count="6"/>
 <result title="frequency" word="control" count="6"/>
 <result title="frequency" word="decreases" count="6"/>
 <result title="frequency" word="demonstrated" count="6"/>
 <result title="frequency" word="der" count="6"/>
 <result title="frequency" word="distribution" count="6"/>
 <result title="frequency" word="double;" count="6"/>
 <result title="frequency" word="excitation" count="6"/>
 <result title="frequency" word="excited" count="6"/>
 <result title="frequency" word="films." count="6"/>
 <result title="frequency" word="formed" count="6"/>
 <result title="frequency" word="green" count="6"/>
 <result title="frequency" word="images" count="6"/>
 <result title="frequency" word="improve" count="6"/>
 <result title="frequency" word="injection" count="6"/>
 <result title="frequency" word="longer" count="6"/>
 <result title="frequency" word="luminescence" count="6"/>
 <result title="frequency" word="materials," count="6"/>
 <result title="frequency" word="monolayer" count="6"/>
 <result title="frequency" word="near‐infrared" count="6"/>
 <result title="frequency" word="orbitals" count="6"/>
 <result title="frequency" word="perovskite–based" count="6"/>
 <result title="frequency" word="prepared" count="6"/>
 <result title="frequency" word="rate" count="6"/>
 <result title="frequency" word="reaction" count="6"/>
 <result title="frequency" word="reduce" count="6"/>
 <result title="frequency" word="region" count="6"/>
 <result title="frequency" word="room" count="6"/>
 <result title="frequency" word="self‐trapping" count="6"/>
 <result title="frequency" word="stoichiometric" count="6"/>
 <result title="frequency" word="structure." count="6"/>
 <result title="frequency" word="transition" count="6"/>
 <result title="frequency" word="tunable" count="6"/>
 <result title="frequency" word="wide" count="6"/>
 <result title="frequency" word="(OAm)" count="5"/>
 <result title="frequency" word=")PbI" count="5"/>
 <result title="frequency" word=".Br" count="5"/>
 <result title="frequency" word="Bai" count="5"/>
 <result title="frequency" word="Blancon" count="5"/>
 <result title="frequency" word="Colvin" count="5"/>
 <result title="frequency" word="Deleporte" count="5"/>
 <result title="frequency" word="Electronic" count="5"/>
 <result title="frequency" word="Fan" count="5"/>
 <result title="frequency" word="GeI" count="5"/>
 <result title="frequency" word="Interfaces" count="5"/>
 <result title="frequency" word="Jiang" count="5"/>
 <result title="frequency" word="John" count="5"/>
 <result title="frequency" word="Katan" count="5"/>
 <result title="frequency" word="LPC" count="5"/>
 <result title="frequency" word="LSM" count="5"/>
 <result title="frequency" word="Laboratory" count="5"/>
 <result title="frequency" word="Lauret" count="5"/>
 <result title="frequency" word="Liang" count="5"/>
 <result title="frequency" word="MAPbBr" count="5"/>
 <result title="frequency" word="National" count="5"/>
 <result title="frequency" word="Niu" count="5"/>
 <result title="frequency" word="Opt." count="5"/>
 <result title="frequency" word="Optical" count="5"/>
 <result title="frequency" word="Park" count="5"/>
 <result title="frequency" word="Photonics" count="5"/>
 <result title="frequency" word="Properties" count="5"/>
 <result title="frequency" word="Sargent" count="5"/>
 <result title="frequency" word="Soci" count="5"/>
 <result title="frequency" word="Solid" count="5"/>
 <result title="frequency" word="Synthesis" count="5"/>
 <result title="frequency" word="TPC[qv:" count="5"/>
 <result title="frequency" word="Then," count="5"/>
 <result title="frequency" word="Voznyy" count="5"/>
 <result title="frequency" word="Wasielewski" count="5"/>
 <result title="frequency" word="Wiley" count="5"/>
 <result title="frequency" word="adjusting" count="5"/>
 <result title="frequency" word="alkyl" count="5"/>
 <result title="frequency" word="ammonium" count="5"/>
 <result title="frequency" word="appropriate" count="5"/>
 <result title="frequency" word="aromatic" count="5"/>
 <result title="frequency" word="bands" count="5"/>
 <result title="frequency" word="border-color" count="5"/>
 <result title="frequency" word="border-width" count="5"/>
 <result title="frequency" word="chain" count="5"/>
 <result title="frequency" word="coating" count="5"/>
 <result title="frequency" word="colloidal" count="5"/>
 <result title="frequency" word="composed" count="5"/>
 <result title="frequency" word="concentration" count="5"/>
 <result title="frequency" word="constant" count="5"/>
 <result title="frequency" word="continuous" count="5"/>
 <result title="frequency" word="controlled" count="5"/>
 <result title="frequency" word="cooling" count="5"/>
 <result title="frequency" word="corrugated" count="5"/>
 <result title="frequency" word="design" count="5"/>
 <result title="frequency" word="diammonium" count="5"/>
 <result title="frequency" word="distortion" count="5"/>
 <result title="frequency" word="energy," count="5"/>
 <result title="frequency" word="evaporation" count="5"/>
 <result title="frequency" word="films," count="5"/>
 <result title="frequency" word="formula" count="5"/>
 <result title="frequency" word="free" count="5"/>
 <result title="frequency" word="grain" count="5"/>
 <result title="frequency" word="group." count="5"/>
 <result title="frequency" word="hole" count="5"/>
 <result title="frequency" word="including" count="5"/>
 <result title="frequency" word="increases" count="5"/>
 <result title="frequency" word="insulating" count="5"/>
 <result title="frequency" word="known" count="5"/>
 <result title="frequency" word="lead‐free" count="5"/>
 <result title="frequency" word="ligands" count="5"/>
 <result title="frequency" word="make" count="5"/>
 <result title="frequency" word="maximum" count="5"/>
 <result title="frequency" word="mechanism" count="5"/>
 <result title="frequency" word="nm." count="5"/>
 <result title="frequency" word="parallel" count="5"/>
 <result title="frequency" word="performance" count="5"/>
 <result title="frequency" word="perovskite," count="5"/>
 <result title="frequency" word="prepare" count="5"/>
 <result title="frequency" word="properties." count="5"/>
 <result title="frequency" word="proportion" count="5"/>
 <result title="frequency" word="recombination." count="5"/>
 <result title="frequency" word="reduced" count="5"/>
 <result title="frequency" word="relatively" count="5"/>
 <result title="frequency" word="research" count="5"/>
 <result title="frequency" word="resulted" count="5"/>
 <result title="frequency" word="resulting" count="5"/>
 <result title="frequency" word="similar" count="5"/>
 <result title="frequency" word="simple" count="5"/>
 <result title="frequency" word="solid;" count="5"/>
 <result title="frequency" word="solvents" count="5"/>
 <result title="frequency" word="substrate" count="5"/>
 <result title="frequency" word="summarized" count="5"/>
 <result title="frequency" word="synthesize" count="5"/>
 <result title="frequency" word="transport" count="5"/>
 <result title="frequency" word="trap" count="5"/>
 <result title="frequency" word="van" count="5"/>
 <result title="frequency" word="vapor" count="5"/>
 <result title="frequency" word="{font-style" count="5"/>
 <result title="frequency" word="{font-weight" count="5"/>
 <result title="frequency" word="(NH" count="4"/>
 <result title="frequency" word="(PhE)" count="4"/>
 <result title="frequency" word=".%." count="4"/>
 <result title="frequency" word="AFM" count="4"/>
 <result title="frequency" word="According" count="4"/>
 <result title="frequency" word="Amassian" count="4"/>
 <result title="frequency" word="Bruno" count="4"/>
 <result title="frequency" word="CsPb" count="4"/>
 <result title="frequency" word="Dai" count="4"/>
 <result title="frequency" word="EQE)" count="4"/>
 <result title="frequency" word="Environ." count="4"/>
 <result title="frequency" word="FWHM" count="4"/>
 <result title="frequency" word="Heremans" count="4"/>
 <result title="frequency" word="ITO/PEDOT:PSS/EM/TPBi/Ca/Al" count="4"/>
 <result title="frequency" word="Kepenekian" count="4"/>
 <result title="frequency" word="Kondo" count="4"/>
 <result title="frequency" word="LED" count="4"/>
 <result title="frequency" word="Lin" count="4"/>
 <result title="frequency" word="Ltd.," count="4"/>
 <result title="frequency" word="Moreover," count="4"/>
 <result title="frequency" word="NFPI" count="4"/>
 <result title="frequency" word="PEABr" count="4"/>
 <result title="frequency" word="Perovskite" count="4"/>
 <result title="frequency" word="Qin" count="4"/>
 <result title="frequency" word="Quan" count="4"/>
 <result title="frequency" word="Rogach" count="4"/>
 <result title="frequency" word="Sadhanala" count="4"/>
 <result title="frequency" word="Schematic" count="4"/>
 <result title="frequency" word="Seo" count="4"/>
 <result title="frequency" word="Shang" count="4"/>
 <result title="frequency" word="Smith" count="4"/>
 <result title="frequency" word="Song" count="4"/>
 <result title="frequency" word="Sons," count="4"/>
 <result title="frequency" word="Takahashi" count="4"/>
 <result title="frequency" word="Tian" count="4"/>
 <result title="frequency" word="Waals" count="4"/>
 <result title="frequency" word="Xing" count="4"/>
 <result title="frequency" word="Yantara" count="4"/>
 <result title="frequency" word="Yuan" count="4"/>
 <result title="frequency" word="Zeng" count="4"/>
 <result title="frequency" word="Zhai" count="4"/>
 <result title="frequency" word="Zhang's" count="4"/>
 <result title="frequency" word="Zheng" count="4"/>
 <result title="frequency" word="Zhong" count="4"/>
 <result title="frequency" word="[]," count="4"/>
 <result title="frequency" word="a)." count="4"/>
 <result title="frequency" word="a,]" count="4"/>
 <result title="frequency" word="a]," count="4"/>
 <result title="frequency" word="acts" count="4"/>
 <result title="frequency" word="adding" count="4"/>
 <result title="frequency" word="ambient" count="4"/>
 <result title="frequency" word="application" count="4"/>
 <result title="frequency" word="applications" count="4"/>
 <result title="frequency" word="applications." count="4"/>
 <result title="frequency" word="applied" count="4"/>
 <result title="frequency" word="b)." count="4"/>
 <result title="frequency" word="ball" count="4"/>
 <result title="frequency" word="balls" count="4"/>
 <result title="frequency" word="bandgap," count="4"/>
 <result title="frequency" word="biexciton" count="4"/>
 <result title="frequency" word="bold" count="4"/>
 <result title="frequency" word="bond" count="4"/>
 <result title="frequency" word="brightness" count="4"/>
 <result title="frequency" word="broadband" count="4"/>
 <result title="frequency" word="c)." count="4"/>
 <result title="frequency" word="carbon" count="4"/>
 <result title="frequency" word="cell" count="4"/>
 <result title="frequency" word="cells," count="4"/>
 <result title="frequency" word="charges" count="4"/>
 <result title="frequency" word="chemical" count="4"/>
 <result title="frequency" word="composite" count="4"/>
 <result title="frequency" word="compounds" count="4"/>
 <result title="frequency" word="confirmed" count="4"/>
 <result title="frequency" word="conventional" count="4"/>
 <result title="frequency" word="corner‐sharing" count="4"/>
 <result title="frequency" word="coupling" count="4"/>
 <result title="frequency" word="courier;" count="4"/>
 <result title="frequency" word="crystallization." count="4"/>
 <result title="frequency" word="decay" count="4"/>
 <result title="frequency" word="decrease" count="4"/>
 <result title="frequency" word="density." count="4"/>
 <result title="frequency" word="devices," count="4"/>
 <result title="frequency" word="dissolved" count="4"/>
 <result title="frequency" word="dropped" count="4"/>
 <result title="frequency" word="eV." count="4"/>
 <result title="frequency" word="easy" count="4"/>
 <result title="frequency" word="effectively" count="4"/>
 <result title="frequency" word="efficiency." count="4"/>
 <result title="frequency" word="efforts" count="4"/>
 <result title="frequency" word="em;" count="4"/>
 <result title="frequency" word="emission," count="4"/>
 <result title="frequency" word="energies" count="4"/>
 <result title="frequency" word="film." count="4"/>
 <result title="frequency" word="formation" count="4"/>
 <result title="frequency" word="great" count="4"/>
 <result title="frequency" word="greater" count="4"/>
 <result title="frequency" word="ground" count="4"/>
 <result title="frequency" word="highly" count="4"/>
 <result title="frequency" word="hot" count="4"/>
 <result title="frequency" word="importantly," count="4"/>
 <result title="frequency" word="improved." count="4"/>
 <result title="frequency" word="impurity" count="4"/>
 <result title="frequency" word="increases," count="4"/>
 <result title="frequency" word="influence" count="4"/>
 <result title="frequency" word="intensity" count="4"/>
 <result title="frequency" word="introduced" count="4"/>
 <result title="frequency" word="large‐sized" count="4"/>
 <result title="frequency" word="length" count="4"/>
 <result title="frequency" word="located" count="4"/>
 <result title="frequency" word="main" count="4"/>
 <result title="frequency" word="mainly" count="4"/>
 <result title="frequency" word="meV" count="4"/>
 <result title="frequency" word="min" count="4"/>
 <result title="frequency" word="moisture" count="4"/>
 <result title="frequency" word="molar" count="4"/>
 <result title="frequency" word="multiphase" count="4"/>
 <result title="frequency" word="nanoplatelets" count="4"/>
 <result title="frequency" word="narrow" count="4"/>
 <result title="frequency" word="need" count="4"/>
 <result title="frequency" word="obtained." count="4"/>
 <result title="frequency" word="peaks" count="4"/>
 <result title="frequency" word="permanent" count="4"/>
 <result title="frequency" word="photographs" count="4"/>
 <result title="frequency" word="process." count="4"/>
 <result title="frequency" word="promotes" count="4"/>
 <result title="frequency" word="proved" count="4"/>
 <result title="frequency" word="pt;}" count="4"/>
 <result title="frequency" word="quality" count="4"/>
 <result title="frequency" word="recent" count="4"/>
 <result title="frequency" word="red" count="4"/>
 <result title="frequency" word="reduces" count="4"/>
 <result title="frequency" word="role" count="4"/>
 <result title="frequency" word="seen" count="4"/>
 <result title="frequency" word="separation" count="4"/>
 <result title="frequency" word="sheet" count="4"/>
 <result title="frequency" word="sheets" count="4"/>
 <result title="frequency" word="single‐crystal" count="4"/>
 <result title="frequency" word="size" count="4"/>
 <result title="frequency" word="solutions" count="4"/>
 <result title="frequency" word="stable" count="4"/>
 <result title="frequency" word="state," count="4"/>
 <result title="frequency" word="states" count="4"/>
 <result title="frequency" word="studied" count="4"/>
 <result title="frequency" word="temperature," count="4"/>
 <result title="frequency" word="thicknesses" count="4"/>
 <result title="frequency" word="unique" count="4"/>
 <result title="frequency" word="voltage" count="4"/>
 <result title="frequency" word="wider" count="4"/>
</results>
